 # Fcc Au oriented X=[11-2] Y=[-110] Z=[111].
  
        8064  atoms
2 atom types
 
      0.000000000000      23.515101530719  xlo xhi
      0.000000000000      23.758787847868  ylo yhi
      0.000000000000       6.235382907248  zlo zhi
 
 
 
Atoms # atomic
 
         1    1        0.000000000000       0.000000000000       0.000000000000
         2    1        0.979795897113       0.000000000000       1.385640646055
         3    1        0.489897948557       0.000000000000       0.692820323028
         4    1        0.734846922835       0.424264068712      -0.000000000000
         5    1        1.224744871392       0.424264068712       0.692820323028
         6    1        0.244948974278       0.424264068712       1.385640646055
         7    1        1.469693845670       0.000000000000       0.000000000000
         8    1        2.449489742783       0.000000000000       1.385640646055
         9    1        1.959591794227       0.000000000000       0.692820323028
        10    1        2.204540768505       0.424264068712      -0.000000000000
        11    1        2.694438717061       0.424264068712       0.692820323028
        12    1        1.714642819948       0.424264068712       1.385640646055
        13    1        2.939387691340       0.000000000000       0.000000000000
        14    1        3.919183588453       0.000000000000       1.385640646055
        15    1        3.429285639896       0.000000000000       0.692820323028
        16    1        3.674234614175       0.424264068712      -0.000000000000
        17    1        4.164132562731       0.424264068712       0.692820323028
        18    1        3.184336665618       0.424264068712       1.385640646055
        19    1        4.409081537010       0.000000000000       0.000000000000
        20    1        5.388877434123       0.000000000000       1.385640646055
        21    1        4.898979485566       0.000000000000       0.692820323028
        22    1        5.143928459845       0.424264068712      -0.000000000000
        23    1        5.633826408401       0.424264068712       0.692820323028
        24    1        4.654030511288       0.424264068712       1.385640646055
        25    1        5.878775382680       0.000000000000       0.000000000000
        26    1        6.858571279793       0.000000000000       1.385640646055
        27    1        6.368673331236       0.000000000000       0.692820323028
        28    1        6.613622305515       0.424264068712      -0.000000000000
        29    1        7.103520254071       0.424264068712       0.692820323028
        30    1        6.123724356958       0.424264068712       1.385640646055
        31    1        7.348469228350       0.000000000000       0.000000000000
        32    1        8.328265125463       0.000000000000       1.385640646055
        33    1        7.838367176906       0.000000000000       0.692820323028
        34    1        8.083316151184       0.424264068712      -0.000000000000
        35    1        8.573214099741       0.424264068712       0.692820323028
        36    1        7.593418202628       0.424264068712       1.385640646055
        37    1        8.818163074019       0.000000000000       0.000000000000
        38    1        9.797958971133       0.000000000000       1.385640646055
        39    1        9.308061022576       0.000000000000       0.692820323028
        40    1        9.553009996854       0.424264068712      -0.000000000000
        41    1       10.042907945411       0.424264068712       0.692820323028
        42    1        9.063112048298       0.424264068712       1.385640646055
        43    1       10.287856919689       0.000000000000       0.000000000000
        44    1       11.267652816803       0.000000000000       1.385640646055
        45    1       10.777754868246       0.000000000000       0.692820323028
        46    1       11.022703842524       0.424264068712      -0.000000000000
        47    1       11.512601791081       0.424264068712       0.692820323028
        48    1       10.532805893968       0.424264068712       1.385640646055
        49    1       11.757550765359       0.000000000000       0.000000000000
        50    1       12.737346662473       0.000000000000       1.385640646055
        51    1       12.247448713916       0.000000000000       0.692820323028
        52    1       12.492397688194       0.424264068712      -0.000000000000
        53    1       12.982295636751       0.424264068712       0.692820323028
        54    1       12.002499739638       0.424264068712       1.385640646055
        55    1       13.227244611029       0.000000000000       0.000000000000
        56    1       14.207040508142       0.000000000000       1.385640646055
        57    1       13.717142559586       0.000000000000       0.692820323028
        58    1       13.962091533864       0.424264068712      -0.000000000000
        59    1       14.451989482421       0.424264068712       0.692820323028
        60    1       13.472193585307       0.424264068712       1.385640646055
        61    1       14.696938456699       0.000000000000       0.000000000000
        62    1       15.676734353812       0.000000000000       1.385640646055
        63    1       15.186836405256       0.000000000000       0.692820323028
        64    1       15.431785379534       0.424264068712      -0.000000000000
        65    1       15.921683328091       0.424264068712       0.692820323028
        66    1       14.941887430977       0.424264068712       1.385640646055
        67    1       16.166632302369       0.000000000000       0.000000000000
        68    1       17.146428199482       0.000000000000       1.385640646055
        69    1       16.656530250926       0.000000000000       0.692820323028
        70    1       16.901479225204       0.424264068712      -0.000000000000
        71    1       17.391377173761       0.424264068712       0.692820323028
        72    1       16.411581276647       0.424264068712       1.385640646055
        73    1       17.636326148039       0.000000000000       0.000000000000
        74    1       18.616122045152       0.000000000000       1.385640646055
        75    1       18.126224096596       0.000000000000       0.692820323028
        76    1       18.371173070874       0.424264068712      -0.000000000000
        77    1       18.861071019430       0.424264068712       0.692820323028
        78    1       17.881275122317       0.424264068712       1.385640646055
        79    1       19.106019993709       0.000000000000       0.000000000000
        80    1       20.085815890822       0.000000000000       1.385640646055
        81    1       19.595917942265       0.000000000000       0.692820323028
        82    1       19.840866916544       0.424264068712      -0.000000000000
        83    1       20.330764865100       0.424264068712       0.692820323028
        84    1       19.350968967987       0.424264068712       1.385640646055
        85    1       20.575713839379       0.000000000000       0.000000000000
        86    1       21.555509736492       0.000000000000       1.385640646055
        87    1       21.065611787935       0.000000000000       0.692820323028
        88    1       21.310560762214       0.424264068712      -0.000000000000
        89    1       21.800458710770       0.424264068712       0.692820323028
        90    1       20.820662813657       0.424264068712       1.385640646055
        91    1       22.045407685049       0.000000000000       0.000000000000
        92    1       23.025203582162       0.000000000000       1.385640646055
        93    1       22.535305633605       0.000000000000       0.692820323028
        94    1       22.780254607884       0.424264068712      -0.000000000000
        95    1       23.270152556440       0.424264068712       0.692820323028
        96    1       22.290356659327       0.424264068712       1.385640646055
        97    1        0.000000000000       0.848528137424       0.000000000000
        98    1        0.979795897113       0.848528137424       1.385640646055
        99    1        0.489897948557       0.848528137424       0.692820323028
       100    1        0.734846922835       1.272792206136      -0.000000000000
       101    1        1.224744871392       1.272792206136       0.692820323028
       102    1        0.244948974278       1.272792206136       1.385640646055
       103    1        1.469693845670       0.848528137424       0.000000000000
       104    1        2.449489742783       0.848528137424       1.385640646055
       105    1        1.959591794227       0.848528137424       0.692820323028
       106    1        2.204540768505       1.272792206136      -0.000000000000
       107    1        2.694438717061       1.272792206136       0.692820323028
       108    1        1.714642819948       1.272792206136       1.385640646055
       109    1        2.939387691340       0.848528137424       0.000000000000
       110    1        3.919183588453       0.848528137424       1.385640646055
       111    1        3.429285639896       0.848528137424       0.692820323028
       112    1        3.674234614175       1.272792206136      -0.000000000000
       113    1        4.164132562731       1.272792206136       0.692820323028
       114    1        3.184336665618       1.272792206136       1.385640646055
       115    1        4.409081537010       0.848528137424       0.000000000000
       116    1        5.388877434123       0.848528137424       1.385640646055
       117    1        4.898979485566       0.848528137424       0.692820323028
       118    1        5.143928459845       1.272792206136      -0.000000000000
       119    1        5.633826408401       1.272792206136       0.692820323028
       120    1        4.654030511288       1.272792206136       1.385640646055
       121    1        5.878775382680       0.848528137424       0.000000000000
       122    1        6.858571279793       0.848528137424       1.385640646055
       123    1        6.368673331236       0.848528137424       0.692820323028
       124    1        6.613622305515       1.272792206136      -0.000000000000
       125    1        7.103520254071       1.272792206136       0.692820323028
       126    1        6.123724356958       1.272792206136       1.385640646055
       127    1        7.348469228350       0.848528137424       0.000000000000
       128    1        8.328265125463       0.848528137424       1.385640646055
       129    1        7.838367176906       0.848528137424       0.692820323028
       130    1        8.083316151184       1.272792206136      -0.000000000000
       131    1        8.573214099741       1.272792206136       0.692820323028
       132    1        7.593418202628       1.272792206136       1.385640646055
       133    1        8.818163074019       0.848528137424       0.000000000000
       134    1        9.797958971133       0.848528137424       1.385640646055
       135    1        9.308061022576       0.848528137424       0.692820323028
       136    1        9.553009996854       1.272792206136      -0.000000000000
       137    1       10.042907945411       1.272792206136       0.692820323028
       138    1        9.063112048298       1.272792206136       1.385640646055
       139    1       10.287856919689       0.848528137424       0.000000000000
       140    1       11.267652816803       0.848528137424       1.385640646055
       141    1       10.777754868246       0.848528137424       0.692820323028
       142    1       11.022703842524       1.272792206136      -0.000000000000
       143    1       11.512601791081       1.272792206136       0.692820323028
       144    1       10.532805893968       1.272792206136       1.385640646055
       145    1       11.757550765359       0.848528137424       0.000000000000
       146    1       12.737346662473       0.848528137424       1.385640646055
       147    1       12.247448713916       0.848528137424       0.692820323028
       148    1       12.492397688194       1.272792206136      -0.000000000000
       149    1       12.982295636751       1.272792206136       0.692820323028
       150    1       12.002499739638       1.272792206136       1.385640646055
       151    1       13.227244611029       0.848528137424       0.000000000000
       152    1       14.207040508142       0.848528137424       1.385640646055
       153    1       13.717142559586       0.848528137424       0.692820323028
       154    1       13.962091533864       1.272792206136      -0.000000000000
       155    1       14.451989482421       1.272792206136       0.692820323028
       156    1       13.472193585307       1.272792206136       1.385640646055
       157    1       14.696938456699       0.848528137424       0.000000000000
       158    1       15.676734353812       0.848528137424       1.385640646055
       159    1       15.186836405256       0.848528137424       0.692820323028
       160    1       15.431785379534       1.272792206136      -0.000000000000
       161    1       15.921683328091       1.272792206136       0.692820323028
       162    1       14.941887430977       1.272792206136       1.385640646055
       163    1       16.166632302369       0.848528137424       0.000000000000
       164    1       17.146428199482       0.848528137424       1.385640646055
       165    1       16.656530250926       0.848528137424       0.692820323028
       166    1       16.901479225204       1.272792206136      -0.000000000000
       167    1       17.391377173761       1.272792206136       0.692820323028
       168    1       16.411581276647       1.272792206136       1.385640646055
       169    1       17.636326148039       0.848528137424       0.000000000000
       170    1       18.616122045152       0.848528137424       1.385640646055
       171    1       18.126224096596       0.848528137424       0.692820323028
       172    1       18.371173070874       1.272792206136      -0.000000000000
       173    1       18.861071019430       1.272792206136       0.692820323028
       174    1       17.881275122317       1.272792206136       1.385640646055
       175    1       19.106019993709       0.848528137424       0.000000000000
       176    1       20.085815890822       0.848528137424       1.385640646055
       177    1       19.595917942265       0.848528137424       0.692820323028
       178    1       19.840866916544       1.272792206136      -0.000000000000
       179    1       20.330764865100       1.272792206136       0.692820323028
       180    1       19.350968967987       1.272792206136       1.385640646055
       181    1       20.575713839379       0.848528137424       0.000000000000
       182    1       21.555509736492       0.848528137424       1.385640646055
       183    1       21.065611787935       0.848528137424       0.692820323028
       184    1       21.310560762214       1.272792206136      -0.000000000000
       185    1       21.800458710770       1.272792206136       0.692820323028
       186    1       20.820662813657       1.272792206136       1.385640646055
       187    1       22.045407685049       0.848528137424       0.000000000000
       188    1       23.025203582162       0.848528137424       1.385640646055
       189    1       22.535305633605       0.848528137424       0.692820323028
       190    1       22.780254607884       1.272792206136      -0.000000000000
       191    1       23.270152556440       1.272792206136       0.692820323028
       192    1       22.290356659327       1.272792206136       1.385640646055
       193    1        0.000000000000       1.697056274848       0.000000000000
       194    1        0.979795897113       1.697056274848       1.385640646055
       195    1        0.489897948557       1.697056274848       0.692820323028
       196    1        0.734846922835       2.121320343560      -0.000000000000
       197    1        1.224744871392       2.121320343560       0.692820323028
       198    1        0.244948974278       2.121320343560       1.385640646055
       199    1        1.469693845670       1.697056274848       0.000000000000
       200    1        2.449489742783       1.697056274848       1.385640646055
       201    1        1.959591794227       1.697056274848       0.692820323028
       202    1        2.204540768505       2.121320343560      -0.000000000000
       203    1        2.694438717061       2.121320343560       0.692820323028
       204    1        1.714642819948       2.121320343560       1.385640646055
       205    1        2.939387691340       1.697056274848       0.000000000000
       206    1        3.919183588453       1.697056274848       1.385640646055
       207    1        3.429285639896       1.697056274848       0.692820323028
       208    1        3.674234614175       2.121320343560      -0.000000000000
       209    1        4.164132562731       2.121320343560       0.692820323028
       210    1        3.184336665618       2.121320343560       1.385640646055
       211    1        4.409081537010       1.697056274848       0.000000000000
       212    1        5.388877434123       1.697056274848       1.385640646055
       213    1        4.898979485566       1.697056274848       0.692820323028
       214    1        5.143928459845       2.121320343560      -0.000000000000
       215    1        5.633826408401       2.121320343560       0.692820323028
       216    1        4.654030511288       2.121320343560       1.385640646055
       217    1        5.878775382680       1.697056274848       0.000000000000
       218    1        6.858571279793       1.697056274848       1.385640646055
       219    1        6.368673331236       1.697056274848       0.692820323028
       220    1        6.613622305515       2.121320343560      -0.000000000000
       221    1        7.103520254071       2.121320343560       0.692820323028
       222    1        6.123724356958       2.121320343560       1.385640646055
       223    1        7.348469228350       1.697056274848       0.000000000000
       224    1        8.328265125463       1.697056274848       1.385640646055
       225    1        7.838367176906       1.697056274848       0.692820323028
       226    1        8.083316151184       2.121320343560      -0.000000000000
       227    1        8.573214099741       2.121320343560       0.692820323028
       228    1        7.593418202628       2.121320343560       1.385640646055
       229    1        8.818163074019       1.697056274848       0.000000000000
       230    1        9.797958971133       1.697056274848       1.385640646055
       231    1        9.308061022576       1.697056274848       0.692820323028
       232    1        9.553009996854       2.121320343560      -0.000000000000
       233    1       10.042907945411       2.121320343560       0.692820323028
       234    1        9.063112048298       2.121320343560       1.385640646055
       235    1       10.287856919689       1.697056274848       0.000000000000
       236    1       11.267652816803       1.697056274848       1.385640646055
       237    1       10.777754868246       1.697056274848       0.692820323028
       238    1       11.022703842524       2.121320343560      -0.000000000000
       239    1       11.512601791081       2.121320343560       0.692820323028
       240    1       10.532805893968       2.121320343560       1.385640646055
       241    1       11.757550765359       1.697056274848       0.000000000000
       242    1       12.737346662473       1.697056274848       1.385640646055
       243    1       12.247448713916       1.697056274848       0.692820323028
       244    1       12.492397688194       2.121320343560      -0.000000000000
       245    1       12.982295636751       2.121320343560       0.692820323028
       246    1       12.002499739638       2.121320343560       1.385640646055
       247    1       13.227244611029       1.697056274848       0.000000000000
       248    1       14.207040508142       1.697056274848       1.385640646055
       249    1       13.717142559586       1.697056274848       0.692820323028
       250    1       13.962091533864       2.121320343560      -0.000000000000
       251    1       14.451989482421       2.121320343560       0.692820323028
       252    1       13.472193585307       2.121320343560       1.385640646055
       253    1       14.696938456699       1.697056274848       0.000000000000
       254    1       15.676734353812       1.697056274848       1.385640646055
       255    1       15.186836405256       1.697056274848       0.692820323028
       256    1       15.431785379534       2.121320343560      -0.000000000000
       257    1       15.921683328091       2.121320343560       0.692820323028
       258    1       14.941887430977       2.121320343560       1.385640646055
       259    1       16.166632302369       1.697056274848       0.000000000000
       260    1       17.146428199482       1.697056274848       1.385640646055
       261    1       16.656530250926       1.697056274848       0.692820323028
       262    1       16.901479225204       2.121320343560      -0.000000000000
       263    1       17.391377173761       2.121320343560       0.692820323028
       264    1       16.411581276647       2.121320343560       1.385640646055
       265    1       17.636326148039       1.697056274848       0.000000000000
       266    1       18.616122045152       1.697056274848       1.385640646055
       267    1       18.126224096596       1.697056274848       0.692820323028
       268    1       18.371173070874       2.121320343560      -0.000000000000
       269    1       18.861071019430       2.121320343560       0.692820323028
       270    1       17.881275122317       2.121320343560       1.385640646055
       271    1       19.106019993709       1.697056274848       0.000000000000
       272    1       20.085815890822       1.697056274848       1.385640646055
       273    1       19.595917942265       1.697056274848       0.692820323028
       274    1       19.840866916544       2.121320343560      -0.000000000000
       275    1       20.330764865100       2.121320343560       0.692820323028
       276    1       19.350968967987       2.121320343560       1.385640646055
       277    1       20.575713839379       1.697056274848       0.000000000000
       278    1       21.555509736492       1.697056274848       1.385640646055
       279    1       21.065611787935       1.697056274848       0.692820323028
       280    1       21.310560762214       2.121320343560      -0.000000000000
       281    1       21.800458710770       2.121320343560       0.692820323028
       282    1       20.820662813657       2.121320343560       1.385640646055
       283    1       22.045407685049       1.697056274848       0.000000000000
       284    1       23.025203582162       1.697056274848       1.385640646055
       285    1       22.535305633605       1.697056274848       0.692820323028
       286    1       22.780254607884       2.121320343560      -0.000000000000
       287    1       23.270152556440       2.121320343560       0.692820323028
       288    1       22.290356659327       2.121320343560       1.385640646055
       289    1        0.000000000000       2.545584412272       0.000000000000
       290    1        0.979795897113       2.545584412272       1.385640646055
       291    1        0.489897948557       2.545584412272       0.692820323028
       292    1        0.734846922835       2.969848480983      -0.000000000000
       293    1        1.224744871392       2.969848480983       0.692820323028
       294    1        0.244948974278       2.969848480983       1.385640646055
       295    1        1.469693845670       2.545584412272       0.000000000000
       296    1        2.449489742783       2.545584412272       1.385640646055
       297    1        1.959591794227       2.545584412272       0.692820323028
       298    1        2.204540768505       2.969848480983      -0.000000000000
       299    1        2.694438717061       2.969848480983       0.692820323028
       300    1        1.714642819948       2.969848480983       1.385640646055
       301    1        2.939387691340       2.545584412272       0.000000000000
       302    1        3.919183588453       2.545584412272       1.385640646055
       303    1        3.429285639896       2.545584412272       0.692820323028
       304    1        3.674234614175       2.969848480983      -0.000000000000
       305    1        4.164132562731       2.969848480983       0.692820323028
       306    1        3.184336665618       2.969848480983       1.385640646055
       307    1        4.409081537010       2.545584412272       0.000000000000
       308    1        5.388877434123       2.545584412272       1.385640646055
       309    1        4.898979485566       2.545584412272       0.692820323028
       310    1        5.143928459845       2.969848480983      -0.000000000000
       311    1        5.633826408401       2.969848480983       0.692820323028
       312    1        4.654030511288       2.969848480983       1.385640646055
       313    1        5.878775382680       2.545584412272       0.000000000000
       314    1        6.858571279793       2.545584412272       1.385640646055
       315    1        6.368673331236       2.545584412272       0.692820323028
       316    1        6.613622305515       2.969848480983      -0.000000000000
       317    1        7.103520254071       2.969848480983       0.692820323028
       318    1        6.123724356958       2.969848480983       1.385640646055
       319    1        7.348469228350       2.545584412272       0.000000000000
       320    1        8.328265125463       2.545584412272       1.385640646055
       321    1        7.838367176906       2.545584412272       0.692820323028
       322    1        8.083316151184       2.969848480983      -0.000000000000
       323    1        8.573214099741       2.969848480983       0.692820323028
       324    1        7.593418202628       2.969848480983       1.385640646055
       325    1        8.818163074019       2.545584412272       0.000000000000
       326    1        9.797958971133       2.545584412272       1.385640646055
       327    1        9.308061022576       2.545584412272       0.692820323028
       328    1        9.553009996854       2.969848480983      -0.000000000000
       329    1       10.042907945411       2.969848480983       0.692820323028
       330    1        9.063112048298       2.969848480983       1.385640646055
       331    1       10.287856919689       2.545584412272       0.000000000000
       332    1       11.267652816803       2.545584412272       1.385640646055
       333    1       10.777754868246       2.545584412272       0.692820323028
       334    1       11.022703842524       2.969848480983      -0.000000000000
       335    1       11.512601791081       2.969848480983       0.692820323028
       336    1       10.532805893968       2.969848480983       1.385640646055
       337    1       11.757550765359       2.545584412272       0.000000000000
       338    1       12.737346662473       2.545584412272       1.385640646055
       339    1       12.247448713916       2.545584412272       0.692820323028
       340    1       12.492397688194       2.969848480983      -0.000000000000
       341    1       12.982295636751       2.969848480983       0.692820323028
       342    1       12.002499739638       2.969848480983       1.385640646055
       343    1       13.227244611029       2.545584412272       0.000000000000
       344    1       14.207040508142       2.545584412272       1.385640646055
       345    1       13.717142559586       2.545584412272       0.692820323028
       346    1       13.962091533864       2.969848480983      -0.000000000000
       347    1       14.451989482421       2.969848480983       0.692820323028
       348    1       13.472193585307       2.969848480983       1.385640646055
       349    1       14.696938456699       2.545584412272       0.000000000000
       350    1       15.676734353812       2.545584412272       1.385640646055
       351    1       15.186836405256       2.545584412272       0.692820323028
       352    1       15.431785379534       2.969848480983      -0.000000000000
       353    1       15.921683328091       2.969848480983       0.692820323028
       354    1       14.941887430977       2.969848480983       1.385640646055
       355    1       16.166632302369       2.545584412272       0.000000000000
       356    1       17.146428199482       2.545584412272       1.385640646055
       357    1       16.656530250926       2.545584412272       0.692820323028
       358    1       16.901479225204       2.969848480983      -0.000000000000
       359    1       17.391377173761       2.969848480983       0.692820323028
       360    1       16.411581276647       2.969848480983       1.385640646055
       361    1       17.636326148039       2.545584412272       0.000000000000
       362    1       18.616122045152       2.545584412272       1.385640646055
       363    1       18.126224096596       2.545584412272       0.692820323028
       364    1       18.371173070874       2.969848480983      -0.000000000000
       365    1       18.861071019430       2.969848480983       0.692820323028
       366    1       17.881275122317       2.969848480983       1.385640646055
       367    1       19.106019993709       2.545584412272       0.000000000000
       368    1       20.085815890822       2.545584412272       1.385640646055
       369    1       19.595917942265       2.545584412272       0.692820323028
       370    1       19.840866916544       2.969848480983      -0.000000000000
       371    1       20.330764865100       2.969848480983       0.692820323028