 # Fcc Au oriented X=[11-2] Y=[-110] Z=[111].
  
         672  atoms
2 atom types
 
      0.000000000000      11.757550800000  xlo xhi
      0.000000000000      11.879393960000  ylo yhi
      0.000000000000       2.078460970000  zlo zhi
 
 
 
Atoms # atomic
 
         1    1        0.000000000000       0.000000000000       0.000000000000
         2    1        0.979795860808       0.000000000000       1.385640653595
         3    1        0.489897989192       0.000000000000       0.692820316405
         4    1        0.734846925000       0.424264120912       0.000000000000
         5    1        1.224744914192       0.424264120912       0.692820316405
         6    1        0.244948935808       0.424264120912       1.385640653595
         7    1        1.469693850000       0.000000000000       0.000000000000
         8    1        2.449489710808       0.000000000000       1.385640653595
         9    1        1.959591839192       0.000000000000       0.692820316405
        10    1        2.204540775000       0.424264120912       0.000000000000
        11    1        2.694438764192       0.424264120912       0.692820316405
        12    1        1.714642785808       0.424264120912       1.385640653595
        13    1        2.939387700000       0.000000000000       0.000000000000
        14    1        3.919183560808       0.000000000000       1.385640653595
        15    1        3.429285689192       0.000000000000       0.692820316405
        16    1        3.674234625000       0.424264120912       0.000000000000
        17    1        4.164132614192       0.424264120912       0.692820316405
        18    1        3.184336635808       0.424264120912       1.385640653595
        19    1        4.409081550000       0.000000000000       0.000000000000
        20    1        5.388877410808       0.000000000000       1.385640653595
        21    1        4.898979539192       0.000000000000       0.692820316405
        22    1        5.143928475000       0.424264120912       0.000000000000
        23    1        5.633826464192       0.424264120912       0.692820316405
        24    1        4.654030485808       0.424264120912       1.385640653595
        25    1        5.878775400000       0.000000000000       0.000000000000
        26    1        6.858571260808       0.000000000000       1.385640653595
        27    1        6.368673389192       0.000000000000       0.692820316405
        28    1        6.613622325000       0.424264120912       0.000000000000
        29    1        7.103520314192       0.424264120912       0.692820316405
        30    1        6.123724335808       0.424264120912       1.385640653595
        31    1        7.348469250000       0.000000000000       0.000000000000
        32    1        8.328265110808       0.000000000000       1.385640653595
        33    1        7.838367239192       0.000000000000       0.692820316405
        34    1        8.083316175000       0.424264120912       0.000000000000
        35    1        8.573214164192       0.424264120912       0.692820316405
        36    1        7.593418185808       0.424264120912       1.385640653595
        37    1        8.818163100000       0.000000000000       0.000000000000
        38    1        9.797958960808       0.000000000000       1.385640653595
        39    1        9.308061089192       0.000000000000       0.692820316405
        40    1        9.553010025000       0.424264120912       0.000000000000
        41    1       10.042908014192       0.424264120912       0.692820316405
        42    1        9.063112035808       0.424264120912       1.385640653595
        43    1       10.287856950000       0.000000000000       0.000000000000
        44    1       11.267652810808       0.000000000000       1.385640653595
        45    1       10.777754939192       0.000000000000       0.692820316405
        46    1       11.022703875000       0.424264120912       0.000000000000
        47    1       11.512601864192       0.424264120912       0.692820316405
        48    1       10.532805885808       0.424264120912       1.385640653595
        49    1        0.000000000000       0.848528123029       0.000000000000
        50    1        0.979795860808       0.848528123029       1.385640653595
        51    1        0.489897989192       0.848528123029       0.692820316405
        52    1        0.734846925000       1.272792243941       0.000000000000
        53    1        1.224744914192       1.272792243941       0.692820316405
        54    1        0.244948935808       1.272792243941       1.385640653595
        55    1        1.469693850000       0.848528123029       0.000000000000
        56    1        2.449489710808       0.848528123029       1.385640653595
        57    1        1.959591839192       0.848528123029       0.692820316405
        58    1        2.204540775000       1.272792243941       0.000000000000
        59    1        2.694438764192       1.272792243941       0.692820316405
        60    1        1.714642785808       1.272792243941       1.385640653595
        61    1        2.939387700000       0.848528123029       0.000000000000
        62    1        3.919183560808       0.848528123029       1.385640653595
        63    1        3.429285689192       0.848528123029       0.692820316405
        64    1        3.674234625000       1.272792243941       0.000000000000
        65    1        4.164132614192       1.272792243941       0.692820316405
        66    1        3.184336635808       1.272792243941       1.385640653595
        67    1        4.409081550000       0.848528123029       0.000000000000
        68    1        5.388877410808       0.848528123029       1.385640653595
        69    1        4.898979539192       0.848528123029       0.692820316405
        70    1        5.143928475000       1.272792243941       0.000000000000
        71    1        5.633826464192       1.272792243941       0.692820316405
        72    1        4.654030485808       1.272792243941       1.385640653595
        73    1        5.878775400000       0.848528123029       0.000000000000
        74    1        6.858571260808       0.848528123029       1.385640653595
        75    1        6.368673389192       0.848528123029       0.692820316405
        76    1        6.613622325000       1.272792243941       0.000000000000
        77    1        7.103520314192       1.272792243941       0.692820316405
        78    1        6.123724335808       1.272792243941       1.385640653595
        79    1        7.348469250000       0.848528123029       0.000000000000
        80    1        8.328265110808       0.848528123029       1.385640653595
        81    1        7.838367239192       0.848528123029       0.692820316405
        82    1        8.083316175000       1.272792243941       0.000000000000
        83    1        8.573214164192       1.272792243941       0.692820316405
        84    1        7.593418185808       1.272792243941       1.385640653595
        85    1        8.818163100000       0.848528123029       0.000000000000
        86    1        9.797958960808       0.848528123029       1.385640653595
        87    1        9.308061089192       0.848528123029       0.692820316405
        88    1        9.553010025000       1.272792243941       0.000000000000
        89    1       10.042908014192       1.272792243941       0.692820316405
        90    1        9.063112035808       1.272792243941       1.385640653595
        91    1       10.287856950000       0.848528123029       0.000000000000
        92    1       11.267652810808       0.848528123029       1.385640653595
        93    1       10.777754939192       0.848528123029       0.692820316405
        94    1       11.022703875000       1.272792243941       0.000000000000
        95    1       11.512601864192       1.272792243941       0.692820316405
        96    1       10.532805885808       1.272792243941       1.385640653595
        97    1        0.000000000000       1.697056246059       0.000000000000
        98    1        0.979795860808       1.697056246059       1.385640653595
        99    1        0.489897989192       1.697056246059       0.692820316405
       100    1        0.734846925000       2.121320366971       0.000000000000
       101    1        1.224744914192       2.121320366971       0.692820316405
       102    1        0.244948935808       2.121320366971       1.385640653595
       103    1        1.469693850000       1.697056246059       0.000000000000
       104    1        2.449489710808       1.697056246059       1.385640653595
       105    1        1.959591839192       1.697056246059       0.692820316405
       106    1        2.204540775000       2.121320366971       0.000000000000
       107    1        2.694438764192       2.121320366971       0.692820316405
       108    1        1.714642785808       2.121320366971       1.385640653595
       109    1        2.939387700000       1.697056246059       0.000000000000
       110    1        3.919183560808       1.697056246059       1.385640653595
       111    1        3.429285689192       1.697056246059       0.692820316405
       112    1        3.674234625000       2.121320366971       0.000000000000
       113    1        4.164132614192       2.121320366971       0.692820316405
       114    1        3.184336635808       2.121320366971       1.385640653595
       115    1        4.409081550000       1.697056246059       0.000000000000
       116    1        5.388877410808       1.697056246059       1.385640653595
       117    1        4.898979539192       1.697056246059       0.692820316405
       118    1        5.143928475000       2.121320366971       0.000000000000
       119    1        5.633826464192       2.121320366971       0.692820316405
       120    1        4.654030485808       2.121320366971       1.385640653595
       121    1        5.878775400000       1.697056246059       0.000000000000
       122    1        6.858571260808       1.697056246059       1.385640653595
       123    1        6.368673389192       1.697056246059       0.692820316405
       124    1        6.613622325000       2.121320366971       0.000000000000
       125    1        7.103520314192       2.121320366971       0.692820316405
       126    1        6.123724335808       2.121320366971       1.385640653595
       127    1        7.348469250000       1.697056246059       0.000000000000
       128    1        8.328265110808       1.697056246059       1.385640653595
       129    1        7.838367239192       1.697056246059       0.692820316405
       130    1        8.083316175000       2.121320366971       0.000000000000
       131    1        8.573214164192       2.121320366971       0.692820316405
       132    1        7.593418185808       2.121320366971       1.385640653595
       133    1        8.818163100000       1.697056246059       0.000000000000
       134    1        9.797958960808       1.697056246059       1.385640653595
       135    1        9.308061089192       1.697056246059       0.692820316405
       136    1        9.553010025000       2.121320366971       0.000000000000
       137    1       10.042908014192       2.121320366971       0.692820316405
       138    1        9.063112035808       2.121320366971       1.385640653595
       139    1       10.287856950000       1.697056246059       0.000000000000
       140    1       11.267652810808       1.697056246059       1.385640653595
       141    1       10.777754939192       1.697056246059       0.692820316405
       142    1       11.022703875000       2.121320366971       0.000000000000
       143    1       11.512601864192       2.121320366971       0.692820316405
       144    1       10.532805885808       2.121320366971       1.385640653595
       145    1        0.000000000000       2.545584369088       0.000000000000
       146    1        0.979795860808       2.545584369088       1.385640653595
       147    1        0.489897989192       2.545584369088       0.692820316405
       148    1        0.734846925000       2.969848490000       0.000000000000
       149    1        1.224744914192       2.969848490000       0.692820316405
       150    1        0.244948935808       2.969848490000       1.385640653595
       151    1        1.469693850000       2.545584369088       0.000000000000
       152    1        2.449489710808       2.545584369088       1.385640653595
       153    1        1.959591839192       2.545584369088       0.692820316405
       154    1        2.204540775000       2.969848490000       0.000000000000
       155    1        2.694438764192       2.969848490000       0.692820316405
       156    1        1.714642785808       2.969848490000       1.385640653595
       157    1        2.939387700000       2.545584369088       0.000000000000
       158    1        3.919183560808       2.545584369088       1.385640653595
       159    1        3.429285689192       2.545584369088       0.692820316405
       160    1        3.674234625000       2.969848490000       0.000000000000
       161    1        4.164132614192       2.969848490000       0.692820316405
       162    1        3.184336635808       2.969848490000       1.385640653595
       163    1        4.409081550000       2.545584369088       0.000000000000
       164    1        5.388877410808       2.545584369088       1.385640653595
       165    1        4.898979539192       2.545584369088       0.692820316405
       166    1        5.143928475000       2.969848490000       0.000000000000
       167    1        5.633826464192       2.969848490000       0.692820316405
       168    1        4.654030485808       2.969848490000       1.385640653595
       169    1        5.878775400000       2.545584369088       0.000000000000
       170    1        6.858571260808       2.545584369088       1.385640653595
       171    1        6.368673389192       2.545584369088       0.692820316405
       172    1        6.613622325000       2.969848490000       0.000000000000
       173    1        7.103520314192       2.969848490000       0.692820316405
       174    1        6.123724335808       2.969848490000       1.385640653595
       175    1        7.348469250000       2.545584369088       0.000000000000
       176    1        8.328265110808       2.545584369088       1.385640653595
       177    1        7.838367239192       2.545584369088       0.692820316405
       178    1        8.083316175000       2.969848490000       0.000000000000
       179    1        8.573214164192       2.969848490000       0.692820316405
       180    1        7.593418185808       2.969848490000       1.385640653595
       181    1        8.818163100000       2.545584369088       0.000000000000
       182    1        9.797958960808       2.545584369088       1.385640653595
       183    1        9.308061089192       2.545584369088       0.692820316405
       184    1        9.553010025000       2.969848490000       0.000000000000
       185    1       10.042908014192       2.969848490000       0.692820316405
       186    1        9.063112035808       2.969848490000       1.385640653595
       187    1       10.287856950000       2.545584369088       0.000000000000
       188    1       11.267652810808       2.545584369088       1.385640653595
       189    1       10.777754939192       2.545584369088       0.692820316405
       190    1       11.022703875000       2.969848490000       0.000000000000
       191    1       11.512601864192       2.969848490000       0.692820316405
       192    1       10.532805885808       2.969848490000       1.385640653595
       193    1        0.000000000000       3.394112610912       0.000000000000
       194    1        0.979795860808       3.394112610912       1.385640653595
       195    1        0.489897989192       3.394112610912       0.692820316405
       196    1        0.734846925000       3.818376613029       0.000000000000
       197    1        1.224744914192       3.818376613029       0.692820316405
       198    1        0.244948935808       3.818376613029       1.385640653595
       199    1        1.469693850000       3.394112610912       0.000000000000
       200    1        2.449489710808       3.394112610912       1.385640653595
       201    1        1.959591839192       3.394112610912       0.692820316405
       202    1        2.204540775000       3.818376613029       0.000000000000
       203    1        2.694438764192       3.818376613029       0.692820316405
       204    1        1.714642785808       3.818376613029       1.385640653595
       205    1        2.939387700000       3.394112610912       0.000000000000
       206    1        3.919183560808       3.394112610912       1.385640653595
       207    1        3.429285689192       3.394112610912       0.692820316405
       208    1        3.674234625000       3.818376613029       0.000000000000
       209    1        4.164132614192       3.818376613029       0.692820316405
       210    1        3.184336635808       3.818376613029       1.385640653595
       211    1        4.409081550000       3.394112610912       0.000000000000
       212    1        5.388877410808       3.394112610912       1.385640653595
       213    1        4.898979539192       3.394112610912       0.692820316405
       214    1        5.143928475000       3.818376613029       0.000000000000
       215    1        5.633826464192       3.818376613029       0.692820316405
       216    1        4.654030485808       3.818376613029       1.385640653595
       217    1        5.878775400000       3.394112610912       0.000000000000
       218    1        6.858571260808       3.394112610912       1.385640653595
       219    1        6.368673389192       3.394112610912       0.692820316405
       220    1        6.613622325000       3.818376613029       0.000000000000
       221    1        7.103520314192       3.818376613029       0.692820316405
       222    1        6.123724335808       3.818376613029       1.385640653595
       223    1        7.348469250000       3.394112610912       0.000000000000
       224    1        8.328265110808       3.394112610912       1.385640653595
       225    1        7.838367239192       3.394112610912       0.692820316405
       226    1        8.083316175000       3.818376613029       0.000000000000
       227    1        8.573214164192       3.818376613029       0.692820316405
       228    1        7.593418185808       3.818376613029       1.385640653595
       229    1        8.818163100000       3.394112610912       0.000000000000
       230    1        9.797958960808       3.394112610912       1.385640653595
       231    1        9.308061089192       3.394112610912       0.692820316405
       232    1        9.553010025000       3.818376613029       0.000000000000
       233    1       10.042908014192       3.818376613029       0.692820316405
       234    1        9.063112035808       3.818376613029       1.385640653595
       235    1       10.287856950000       3.394112610912       0.000000000000
       236    1       11.267652810808       3.394112610912       1.385640653595
       237    1       10.777754939192       3.394112610912       0.692820316405
       238    1       11.022703875000       3.818376613029       0.000000000000
       239    1       11.512601864192       3.818376613029       0.692820316405
       240    1       10.532805885808       3.818376613029       1.385640653595
       241    1        0.000000000000       4.242640733941       0.000000000000
       242    1        0.979795860808       4.242640733941       1.385640653595
       243    1        0.489897989192       4.242640733941       0.692820316405
       244    1        0.734846925000       4.666904736059       0.000000000000
       245    1        1.224744914192       4.666904736059       0.692820316405
       246    1        0.244948935808       4.666904736059       1.385640653595
       247    1        1.469693850000       4.242640733941       0.000000000000
       248    1        2.449489710808       4.242640733941       1.385640653595
       249    1        1.959591839192       4.242640733941       0.692820316405
       250    1        2.204540775000       4.666904736059       0.000000000000
       251    1        2.694438764192       4.666904736059       0.692820316405
       252    1        1.714642785808       4.666904736059       1.385640653595
       253    1        2.939387700000       4.242640733941       0.000000000000
       254    1        3.919183560808       4.242640733941       1.385640653595
       255    1        3.429285689192       4.242640733941       0.692820316405
       256    1        3.674234625000       4.666904736059       0.000000000000
       257    1        4.164132614192       4.666904736059       0.692820316405
       258    1        3.184336635808       4.666904736059       1.385640653595
       259    1        4.409081550000       4.242640733941       0.000000000000
       260    1        5.388877410808       4.242640733941       1.385640653595
       261    1        4.898979539192       4.242640733941       0.692820316405
       262    1        5.143928475000       4.666904736059       0.000000000000
       263    1        5.633826464192       4.666904736059       0.692820316405
       264    1        4.654030485808       4.666904736059       1.385640653595
       265    1        5.878775400000       4.242640733941       0.000000000000
       266    1        6.858571260808       4.242640733941       1.385640653595
       267    1        6.368673389192       4.242640733941       0.692820316405
       268    1        6.613622325000       4.666904736059       0.000000000000
       269    1        7.103520314192       4.666904736059       0.692820316405
       270    1        6.123724335808       4.666904736059       1.385640653595
       271    1        7.348469250000       4.242640733941       0.000000000000
       272    1        8.328265110808       4.242640733941       1.385640653595
       273    1        7.838367239192       4.242640733941       0.692820316405
       274    1        8.083316175000       4.666904736059       0.000000000000
       275    1        8.573214164192       4.666904736059       0.692820316405
       276    1        7.593418185808       4.666904736059       1.385640653595
       277    1        8.818163100000       4.242640733941       0.000000000000
       278    1        9.797958960808       4.242640733941       1.385640653595
       279    1        9.308061089192       4.242640733941       0.692820316405
       280    1        9.553010025000       4.666904736059       0.000000000000
       281    1       10.042908014192       4.666904736059       0.692820316405
       282    1        9.063112035808       4.666904736059       1.385640653595
       283    1       10.287856950000       4.242640733941       0.000000000000
       284    1       11.267652810808       4.242640733941       1.385640653595
       285    1       10.777754939192       4.242640733941       0.692820316405
       286    1       11.022703875000       4.666904736059       0.000000000000
       287    1       11.512601864192       4.666904736059       0.692820316405
       288    1       10.532805885808       4.666904736059       1.385640653595
       289    1        0.000000000000       5.091168856971       0.000000000000
       290    1        0.979795860808       5.091168856971       1.385640653595
       291    1        0.489897989192       5.091168856971       0.692820316405
       292    1        0.734846925000       5.515432859088       0.000000000000
       293    1        1.224744914192       5.515432859088       0.692820316405
       294    1        0.244948935808       5.515432859088       1.385640653595
       295    1        1.469693850000       5.091168856971       0.000000000000
       296    1        2.449489710808       5.091168856971       1.385640653595
       297    1        1.959591839192       5.091168856971       0.692820316405
       298    1        2.204540775000       5.515432859088       0.000000000000
       299    1        2.694438764192       5.515432859088       0.692820316405
       300    1        1.714642785808       5.515432859088       1.385640653595
       301    1        2.939387700000       5.091168856971       0.000000000000
       302    1        3.919183560808       5.091168856971       1.385640653595
       303    1        3.429285689192       5.091168856971       0.692820316405
       304    1        3.674234625000       5.515432859088       0.000000000000
       305    1        4.164132614192       5.515432859088       0.692820316405
       306    1        3.184336635808       5.515432859088       1.385640653595
       307    1        4.409081550000       5.091168856971       0.000000000000
       308    1        5.388877410808       5.091168856971       1.385640653595
       309    1        4.898979539192       5.091168856971       0.692820316405
       310    1        5.143928475000       5.515432859088       0.000000000000
       311    1        5.633826464192       5.515432859088       0.692820316405
       312    1        4.654030485808       5.515432859088       1.385640653595
       313    1        5.878775400000       5.091168856971       0.000000000000
       314    1        6.858571260808       5.091168856971       1.385640653595
       315    1        6.368673389192       5.091168856971       0.692820316405
       316    1        6.613622325000       5.515432859088       0.000000000000
       317    1        7.103520314192       5.515432859088       0.692820316405
       318    1        6.123724335808       5.515432859088       1.385640653595
       319    1        7.348469250000       5.091168856971       0.000000000000
       320    1        8.328265110808       5.091168856971       1.385640653595
       321    1        7.838367239192       5.091168856971       0.692820316405
       322    1        8.083316175000       5.515432859088       0.000000000000
       323    1        8.573214164192       5.515432859088       0.692820316405
       324    1        7.593418185808       5.515432859088       1.385640653595
       325    1        8.818163100000       5.091168856971       0.000000000000
       326    1        9.797958960808       5.091168856971       1.385640653595
       327    1        9.308061089192       5.091168856971       0.692820316405
       328    1        9.553010025000       5.515432859088       0.000000000000
       329    1       10.042908014192       5.515432859088       0.692820316405
       330    1        9.063112035808       5.515432859088       1.385640653595
       331    1       10.287856950000       5.091168856971       0.000000000000
       332    1       11.267652810808       5.091168856971       1.385640653595
       333    1       10.777754939192       5.091168856971       0.692820316405
       334    1       11.022703875000       5.515432859088       0.000000000000
       335    1       11.512601864192       5.515432859088       0.692820316405
       336    1       10.532805885808       5.515432859088       1.385640653595
       337    1        0.000000000000       5.939696980000       0.000000000000
       338    1        0.979795860808       5.939696980000       1.385640653595
       339    1        0.489897989192       5.939696980000       0.692820316405
       340    1        0.734846925000       6.363961100912       0.000000000000
       341    1        1.224744914192       6.363961100912       0.692820316405
       342    1        0.244948935808       6.363961100912       1.385640653595
       343    1        1.469693850000       5.939696980000       0.000000000000
       344    1        2.449489710808       5.939696980000       1.385640653595
       345    1        1.959591839192       5.939696980000       0.692820316405
       346    1        2.204540775000       6.363961100912       0.000000000000
       347    1        2.694438764192       6.363961100912       0.692820316405
       348    1        1.714642785808       6.363961100912       1.385640653595
       349    1        2.939387700000       5.939696980000       0.000000000000
       350    1        3.919183560808       5.939696980000       1.385640653595
       351    1        3.429285689192       5.939696980000       0.692820316405
       352    1        3.674234625000       6.363961100912       0.000000000000
       353    1        4.164132614192       6.363961100912       0.692820316405
       354    1        3.184336635808       6.363961100912       1.385640653595
       355    1        4.409081550000       5.939696980000       0.000000000000
       356    1        5.388877410808       5.939696980000       1.385640653595
       357    1        4.898979539192       5.939696980000       0.692820316405
       358    1        5.143928475000       6.363961100912       0.000000000000
       359    1        5.633826464192       6.363961100912       0.692820316405
       360    1        4.654030485808       6.363961100912       1.385640653595
       361    1        5.878775400000       5.939696980000       0.000000000000
       362    1        6.858571260808       5.939696980000       1.385640653595
       363    1        6.368673389192       5.939696980000       0.692820316405
       364    1        6.613622325000       6.363961100912       0.000000000000
       365    1        7.103520314192       6.363961100912       0.692820316405
       366    1        6.123724335808       6.363961100912       1.385640653595
       367    1        7.348469250000       5.939696980000       0.000000000000
       368    1        8.328265110808       5.939696980000       1.385640653595
       369    1        7.838367239192       5.939696980000       0.692820316405
       370    1        8.083316175000       6.363961100912       0.000000000000
       371    1        8.573214164192       6.363961100912       0.692820316405