 # Fcc Au oriented X=[11-2] Y=[-110] Z=[111].
  
        2016  atoms
2 atom types
 
      0.000000000000      11.757550765359  xlo xhi
      0.000000000000      11.879393923934  ylo yhi
      0.000000000000       6.235382907248  zlo zhi
 
 
 
Atoms # atomic
 
         1    1        0.000000000000       0.000000000000       0.000000000000
         2    1        0.979795897113       0.000000000000       1.385640646055
         3    1        0.489897948557       0.000000000000       0.692820323028
         4    1        0.734846922835       0.424264068712      -0.000000000000
         5    1        1.224744871392       0.424264068712       0.692820323028
         6    1        0.244948974278       0.424264068712       1.385640646055
         7    1        1.469693845670       0.000000000000       0.000000000000
         8    1        2.449489742783       0.000000000000       1.385640646055
         9    1        1.959591794227       0.000000000000       0.692820323028
        10    1        2.204540768505       0.424264068712      -0.000000000000
        11    1        2.694438717061       0.424264068712       0.692820323028
        12    1        1.714642819948       0.424264068712       1.385640646055
        13    1        2.939387691340       0.000000000000       0.000000000000
        14    1        3.919183588453       0.000000000000       1.385640646055
        15    1        3.429285639896       0.000000000000       0.692820323028
        16    1        3.674234614175       0.424264068712      -0.000000000000
        17    1        4.164132562731       0.424264068712       0.692820323028
        18    1        3.184336665618       0.424264068712       1.385640646055
        19    1        4.409081537010       0.000000000000       0.000000000000
        20    1        5.388877434123       0.000000000000       1.385640646055
        21    1        4.898979485566       0.000000000000       0.692820323028
        22    1        5.143928459845       0.424264068712      -0.000000000000
        23    1        5.633826408401       0.424264068712       0.692820323028
        24    1        4.654030511288       0.424264068712       1.385640646055
        25    1        5.878775382680       0.000000000000       0.000000000000
        26    1        6.858571279793       0.000000000000       1.385640646055
        27    1        6.368673331236       0.000000000000       0.692820323028
        28    1        6.613622305515       0.424264068712      -0.000000000000
        29    1        7.103520254071       0.424264068712       0.692820323028
        30    1        6.123724356958       0.424264068712       1.385640646055
        31    1        7.348469228350       0.000000000000       0.000000000000
        32    1        8.328265125463       0.000000000000       1.385640646055
        33    1        7.838367176906       0.000000000000       0.692820323028
        34    1        8.083316151184       0.424264068712      -0.000000000000
        35    1        8.573214099741       0.424264068712       0.692820323028
        36    1        7.593418202628       0.424264068712       1.385640646055
        37    1        8.818163074019       0.000000000000       0.000000000000
        38    1        9.797958971133       0.000000000000       1.385640646055
        39    1        9.308061022576       0.000000000000       0.692820323028
        40    1        9.553009996854       0.424264068712      -0.000000000000
        41    1       10.042907945411       0.424264068712       0.692820323028
        42    1        9.063112048298       0.424264068712       1.385640646055
        43    1       10.287856919689       0.000000000000       0.000000000000
        44    1       11.267652816803       0.000000000000       1.385640646055
        45    1       10.777754868246       0.000000000000       0.692820323028
        46    1       11.022703842524       0.424264068712      -0.000000000000
        47    1       11.512601791081       0.424264068712       0.692820323028
        48    1       10.532805893968       0.424264068712       1.385640646055
        49    1        0.000000000000       0.848528137424       0.000000000000
        50    1        0.979795897113       0.848528137424       1.385640646055
        51    1        0.489897948557       0.848528137424       0.692820323028
        52    1        0.734846922835       1.272792206136      -0.000000000000
        53    1        1.224744871392       1.272792206136       0.692820323028
        54    1        0.244948974278       1.272792206136       1.385640646055
        55    1        1.469693845670       0.848528137424       0.000000000000
        56    1        2.449489742783       0.848528137424       1.385640646055
        57    1        1.959591794227       0.848528137424       0.692820323028
        58    1        2.204540768505       1.272792206136      -0.000000000000
        59    1        2.694438717061       1.272792206136       0.692820323028
        60    1        1.714642819948       1.272792206136       1.385640646055
        61    1        2.939387691340       0.848528137424       0.000000000000
        62    1        3.919183588453       0.848528137424       1.385640646055
        63    1        3.429285639896       0.848528137424       0.692820323028
        64    1        3.674234614175       1.272792206136      -0.000000000000
        65    1        4.164132562731       1.272792206136       0.692820323028
        66    1        3.184336665618       1.272792206136       1.385640646055
        67    1        4.409081537010       0.848528137424       0.000000000000
        68    1        5.388877434123       0.848528137424       1.385640646055
        69    1        4.898979485566       0.848528137424       0.692820323028
        70    1        5.143928459845       1.272792206136      -0.000000000000
        71    1        5.633826408401       1.272792206136       0.692820323028
        72    1        4.654030511288       1.272792206136       1.385640646055
        73    1        5.878775382680       0.848528137424       0.000000000000
        74    1        6.858571279793       0.848528137424       1.385640646055
        75    1        6.368673331236       0.848528137424       0.692820323028
        76    1        6.613622305515       1.272792206136      -0.000000000000
        77    1        7.103520254071       1.272792206136       0.692820323028
        78    1        6.123724356958       1.272792206136       1.385640646055
        79    1        7.348469228350       0.848528137424       0.000000000000
        80    1        8.328265125463       0.848528137424       1.385640646055
        81    1        7.838367176906       0.848528137424       0.692820323028
        82    1        8.083316151184       1.272792206136      -0.000000000000
        83    1        8.573214099741       1.272792206136       0.692820323028
        84    1        7.593418202628       1.272792206136       1.385640646055
        85    1        8.818163074019       0.848528137424       0.000000000000
        86    1        9.797958971133       0.848528137424       1.385640646055
        87    1        9.308061022576       0.848528137424       0.692820323028
        88    1        9.553009996854       1.272792206136      -0.000000000000
        89    1       10.042907945411       1.272792206136       0.692820323028
        90    1        9.063112048298       1.272792206136       1.385640646055
        91    1       10.287856919689       0.848528137424       0.000000000000
        92    1       11.267652816803       0.848528137424       1.385640646055
        93    1       10.777754868246       0.848528137424       0.692820323028
        94    1       11.022703842524       1.272792206136      -0.000000000000
        95    1       11.512601791081       1.272792206136       0.692820323028
        96    1       10.532805893968       1.272792206136       1.385640646055
        97    1        0.000000000000       1.697056274848       0.000000000000
        98    1        0.979795897113       1.697056274848       1.385640646055
        99    1        0.489897948557       1.697056274848       0.692820323028
       100    1        0.734846922835       2.121320343560      -0.000000000000
       101    1        1.224744871392       2.121320343560       0.692820323028
       102    1        0.244948974278       2.121320343560       1.385640646055
       103    1        1.469693845670       1.697056274848       0.000000000000
       104    1        2.449489742783       1.697056274848       1.385640646055
       105    1        1.959591794227       1.697056274848       0.692820323028
       106    1        2.204540768505       2.121320343560      -0.000000000000
       107    1        2.694438717061       2.121320343560       0.692820323028
       108    1        1.714642819948       2.121320343560       1.385640646055
       109    1        2.939387691340       1.697056274848       0.000000000000
       110    1        3.919183588453       1.697056274848       1.385640646055
       111    1        3.429285639896       1.697056274848       0.692820323028
       112    1        3.674234614175       2.121320343560      -0.000000000000
       113    1        4.164132562731       2.121320343560       0.692820323028
       114    1        3.184336665618       2.121320343560       1.385640646055
       115    1        4.409081537010       1.697056274848       0.000000000000
       116    1        5.388877434123       1.697056274848       1.385640646055
       117    1        4.898979485566       1.697056274848       0.692820323028
       118    1        5.143928459845       2.121320343560      -0.000000000000
       119    1        5.633826408401       2.121320343560       0.692820323028
       120    1        4.654030511288       2.121320343560       1.385640646055
       121    1        5.878775382680       1.697056274848       0.000000000000
       122    1        6.858571279793       1.697056274848       1.385640646055
       123    1        6.368673331236       1.697056274848       0.692820323028
       124    1        6.613622305515       2.121320343560      -0.000000000000
       125    1        7.103520254071       2.121320343560       0.692820323028
       126    1        6.123724356958       2.121320343560       1.385640646055
       127    1        7.348469228350       1.697056274848       0.000000000000
       128    1        8.328265125463       1.697056274848       1.385640646055
       129    1        7.838367176906       1.697056274848       0.692820323028
       130    1        8.083316151184       2.121320343560      -0.000000000000
       131    1        8.573214099741       2.121320343560       0.692820323028
       132    1        7.593418202628       2.121320343560       1.385640646055
       133    1        8.818163074019       1.697056274848       0.000000000000
       134    1        9.797958971133       1.697056274848       1.385640646055
       135    1        9.308061022576       1.697056274848       0.692820323028
       136    1        9.553009996854       2.121320343560      -0.000000000000
       137    1       10.042907945411       2.121320343560       0.692820323028
       138    1        9.063112048298       2.121320343560       1.385640646055
       139    1       10.287856919689       1.697056274848       0.000000000000
       140    1       11.267652816803       1.697056274848       1.385640646055
       141    1       10.777754868246       1.697056274848       0.692820323028
       142    1       11.022703842524       2.121320343560      -0.000000000000
       143    1       11.512601791081       2.121320343560       0.692820323028
       144    1       10.532805893968       2.121320343560       1.385640646055
       145    1        0.000000000000       2.545584412272       0.000000000000
       146    1        0.979795897113       2.545584412272       1.385640646055
       147    1        0.489897948557       2.545584412272       0.692820323028
       148    1        0.734846922835       2.969848480983      -0.000000000000
       149    1        1.224744871392       2.969848480983       0.692820323028
       150    1        0.244948974278       2.969848480983       1.385640646055
       151    1        1.469693845670       2.545584412272       0.000000000000
       152    1        2.449489742783       2.545584412272       1.385640646055
       153    1        1.959591794227       2.545584412272       0.692820323028
       154    1        2.204540768505       2.969848480983      -0.000000000000
       155    1        2.694438717061       2.969848480983       0.692820323028
       156    1        1.714642819948       2.969848480983       1.385640646055
       157    1        2.939387691340       2.545584412272       0.000000000000
       158    1        3.919183588453       2.545584412272       1.385640646055
       159    1        3.429285639896       2.545584412272       0.692820323028
       160    1        3.674234614175       2.969848480983      -0.000000000000
       161    1        4.164132562731       2.969848480983       0.692820323028
       162    1        3.184336665618       2.969848480983       1.385640646055
       163    1        4.409081537010       2.545584412272       0.000000000000
       164    1        5.388877434123       2.545584412272       1.385640646055
       165    1        4.898979485566       2.545584412272       0.692820323028
       166    1        5.143928459845       2.969848480983      -0.000000000000
       167    1        5.633826408401       2.969848480983       0.692820323028
       168    1        4.654030511288       2.969848480983       1.385640646055
       169    1        5.878775382680       2.545584412272       0.000000000000
       170    1        6.858571279793       2.545584412272       1.385640646055
       171    1        6.368673331236       2.545584412272       0.692820323028
       172    1        6.613622305515       2.969848480983      -0.000000000000
       173    1        7.103520254071       2.969848480983       0.692820323028
       174    1        6.123724356958       2.969848480983       1.385640646055
       175    1        7.348469228350       2.545584412272       0.000000000000
       176    1        8.328265125463       2.545584412272       1.385640646055
       177    1        7.838367176906       2.545584412272       0.692820323028
       178    1        8.083316151184       2.969848480983      -0.000000000000
       179    1        8.573214099741       2.969848480983       0.692820323028
       180    1        7.593418202628       2.969848480983       1.385640646055
       181    1        8.818163074019       2.545584412272       0.000000000000
       182    1        9.797958971133       2.545584412272       1.385640646055
       183    1        9.308061022576       2.545584412272       0.692820323028
       184    1        9.553009996854       2.969848480983      -0.000000000000
       185    1       10.042907945411       2.969848480983       0.692820323028
       186    1        9.063112048298       2.969848480983       1.385640646055
       187    1       10.287856919689       2.545584412272       0.000000000000
       188    1       11.267652816803       2.545584412272       1.385640646055
       189    1       10.777754868246       2.545584412272       0.692820323028
       190    1       11.022703842524       2.969848480983      -0.000000000000
       191    1       11.512601791081       2.969848480983       0.692820323028
       192    1       10.532805893968       2.969848480983       1.385640646055
       193    1        0.000000000000       3.394112549695       0.000000000000
       194    1        0.979795897113       3.394112549695       1.385640646055
       195    1        0.489897948557       3.394112549695       0.692820323028
       196    1        0.734846922835       3.818376618407      -0.000000000000
       197    1        1.224744871392       3.818376618407       0.692820323028
       198    1        0.244948974278       3.818376618407       1.385640646055
       199    1        1.469693845670       3.394112549695       0.000000000000
       200    1        2.449489742783       3.394112549695       1.385640646055
       201    1        1.959591794227       3.394112549695       0.692820323028
       202    1        2.204540768505       3.818376618407      -0.000000000000
       203    1        2.694438717061       3.818376618407       0.692820323028
       204    1        1.714642819948       3.818376618407       1.385640646055
       205    1        2.939387691340       3.394112549695       0.000000000000
       206    1        3.919183588453       3.394112549695       1.385640646055
       207    1        3.429285639896       3.394112549695       0.692820323028
       208    1        3.674234614175       3.818376618407      -0.000000000000
       209    1        4.164132562731       3.818376618407       0.692820323028
       210    1        3.184336665618       3.818376618407       1.385640646055
       211    1        4.409081537010       3.394112549695       0.000000000000
       212    1        5.388877434123       3.394112549695       1.385640646055
       213    1        4.898979485566       3.394112549695       0.692820323028
       214    1        5.143928459845       3.818376618407      -0.000000000000
       215    1        5.633826408401       3.818376618407       0.692820323028
       216    1        4.654030511288       3.818376618407       1.385640646055
       217    1        5.878775382680       3.394112549695       0.000000000000
       218    1        6.858571279793       3.394112549695       1.385640646055
       219    1        6.368673331236       3.394112549695       0.692820323028
       220    1        6.613622305515       3.818376618407      -0.000000000000
       221    1        7.103520254071       3.818376618407       0.692820323028
       222    1        6.123724356958       3.818376618407       1.385640646055
       223    1        7.348469228350       3.394112549695       0.000000000000
       224    1        8.328265125463       3.394112549695       1.385640646055
       225    1        7.838367176906       3.394112549695       0.692820323028
       226    1        8.083316151184       3.818376618407      -0.000000000000
       227    1        8.573214099741       3.818376618407       0.692820323028
       228    1        7.593418202628       3.818376618407       1.385640646055
       229    1        8.818163074019       3.394112549695       0.000000000000
       230    1        9.797958971133       3.394112549695       1.385640646055
       231    1        9.308061022576       3.394112549695       0.692820323028
       232    1        9.553009996854       3.818376618407      -0.000000000000
       233    1       10.042907945411       3.818376618407       0.692820323028
       234    1        9.063112048298       3.818376618407       1.385640646055
       235    1       10.287856919689       3.394112549695       0.000000000000
       236    1       11.267652816803       3.394112549695       1.385640646055
       237    1       10.777754868246       3.394112549695       0.692820323028
       238    1       11.022703842524       3.818376618407      -0.000000000000
       239    1       11.512601791081       3.818376618407       0.692820323028
       240    1       10.532805893968       3.818376618407       1.385640646055
       241    1        0.000000000000       4.242640687119       0.000000000000
       242    1        0.979795897113       4.242640687119       1.385640646055
       243    1        0.489897948557       4.242640687119       0.692820323028
       244    1        0.734846922835       4.666904755831      -0.000000000000
       245    1        1.224744871392       4.666904755831       0.692820323028
       246    1        0.244948974278       4.666904755831       1.385640646055
       247    1        1.469693845670       4.242640687119       0.000000000000
       248    1        2.449489742783       4.242640687119       1.385640646055
       249    1        1.959591794227       4.242640687119       0.692820323028
       250    1        2.204540768505       4.666904755831      -0.000000000000
       251    1        2.694438717061       4.666904755831       0.692820323028
       252    1        1.714642819948       4.666904755831       1.385640646055
       253    1        2.939387691340       4.242640687119       0.000000000000
       254    1        3.919183588453       4.242640687119       1.385640646055
       255    1        3.429285639896       4.242640687119       0.692820323028
       256    1        3.674234614175       4.666904755831      -0.000000000000
       257    1        4.164132562731       4.666904755831       0.692820323028
       258    1        3.184336665618       4.666904755831       1.385640646055
       259    1        4.409081537010       4.242640687119       0.000000000000
       260    1        5.388877434123       4.242640687119       1.385640646055
       261    1        4.898979485566       4.242640687119       0.692820323028
       262    1        5.143928459845       4.666904755831      -0.000000000000
       263    1        5.633826408401       4.666904755831       0.692820323028
       264    1        4.654030511288       4.666904755831       1.385640646055
       265    1        5.878775382680       4.242640687119       0.000000000000
       266    1        6.858571279793       4.242640687119       1.385640646055
       267    1        6.368673331236       4.242640687119       0.692820323028
       268    1        6.613622305515       4.666904755831      -0.000000000000
       269    1        7.103520254071       4.666904755831       0.692820323028
       270    1        6.123724356958       4.666904755831       1.385640646055
       271    1        7.348469228350       4.242640687119       0.000000000000
       272    1        8.328265125463       4.242640687119       1.385640646055
       273    1        7.838367176906       4.242640687119       0.692820323028
       274    1        8.083316151184       4.666904755831      -0.000000000000
       275    1        8.573214099741       4.666904755831       0.692820323028
       276    1        7.593418202628       4.666904755831       1.385640646055
       277    1        8.818163074019       4.242640687119       0.000000000000
       278    1        9.797958971133       4.242640687119       1.385640646055
       279    1        9.308061022576       4.242640687119       0.692820323028
       280    1        9.553009996854       4.666904755831      -0.000000000000
       281    1       10.042907945411       4.666904755831       0.692820323028
       282    1        9.063112048298       4.666904755831       1.385640646055
       283    1       10.287856919689       4.242640687119       0.000000000000
       284    1       11.267652816803       4.242640687119       1.385640646055
       285    1       10.777754868246       4.242640687119       0.692820323028
       286    1       11.022703842524       4.666904755831      -0.000000000000
       287    1       11.512601791081       4.666904755831       0.692820323028
       288    1       10.532805893968       4.666904755831       1.385640646055
       289    1        0.000000000000       5.091168824543       0.000000000000
       290    1        0.979795897113       5.091168824543       1.385640646055
       291    1        0.489897948557       5.091168824543       0.692820323028
       292    1        0.734846922835       5.515432893255      -0.000000000000
       293    1        1.224744871392       5.515432893255       0.692820323028
       294    1        0.244948974278       5.515432893255       1.385640646055
       295    1        1.469693845670       5.091168824543       0.000000000000
       296    1        2.449489742783       5.091168824543       1.385640646055
       297    1        1.959591794227       5.091168824543       0.692820323028
       298    1        2.204540768505       5.515432893255      -0.000000000000
       299    1        2.694438717061       5.515432893255       0.692820323028
       300    1        1.714642819948       5.515432893255       1.385640646055
       301    1        2.939387691340       5.091168824543       0.000000000000
       302    1        3.919183588453       5.091168824543       1.385640646055
       303    1        3.429285639896       5.091168824543       0.692820323028
       304    1        3.674234614175       5.515432893255      -0.000000000000
       305    1        4.164132562731       5.515432893255       0.692820323028
       306    1        3.184336665618       5.515432893255       1.385640646055
       307    1        4.409081537010       5.091168824543       0.000000000000
       308    1        5.388877434123       5.091168824543       1.385640646055
       309    1        4.898979485566       5.091168824543       0.692820323028
       310    1        5.143928459845       5.515432893255      -0.000000000000
       311    1        5.633826408401       5.515432893255       0.692820323028
       312    1        4.654030511288       5.515432893255       1.385640646055
       313    1        5.878775382680       5.091168824543       0.000000000000
       314    1        6.858571279793       5.091168824543       1.385640646055
       315    1        6.368673331236       5.091168824543       0.692820323028
       316    1        6.613622305515       5.515432893255      -0.000000000000
       317    1        7.103520254071       5.515432893255       0.692820323028
       318    1        6.123724356958       5.515432893255       1.385640646055
       319    1        7.348469228350       5.091168824543       0.000000000000
       320    1        8.328265125463       5.091168824543       1.385640646055
       321    1        7.838367176906       5.091168824543       0.692820323028
       322    1        8.083316151184       5.515432893255      -0.000000000000
       323    1        8.573214099741       5.515432893255       0.692820323028
       324    1        7.593418202628       5.515432893255       1.385640646055
       325    1        8.818163074019       5.091168824543       0.000000000000
       326    1        9.797958971133       5.091168824543       1.385640646055
       327    1        9.308061022576       5.091168824543       0.692820323028
       328    1        9.553009996854       5.515432893255      -0.000000000000
       329    1       10.042907945411       5.515432893255       0.692820323028
       330    1        9.063112048298       5.515432893255       1.385640646055
       331    1       10.287856919689       5.091168824543       0.000000000000
       332    1       11.267652816803       5.091168824543       1.385640646055
       333    1       10.777754868246       5.091168824543       0.692820323028
       334    1       11.022703842524       5.515432893255      -0.000000000000
       335    1       11.512601791081       5.515432893255       0.692820323028
       336    1       10.532805893968       5.515432893255       1.385640646055
       337    1        0.000000000000       5.939696961967       0.000000000000
       338    1        0.979795897113       5.939696961967       1.385640646055
       339    1        0.489897948557       5.939696961967       0.692820323028
       340    1        0.734846922835       6.363961030679      -0.000000000000
       341    1        1.224744871392       6.363961030679       0.692820323028
       342    1        0.244948974278       6.363961030679       1.385640646055
       343    1        1.469693845670       5.939696961967       0.000000000000
       344    1        2.449489742783       5.939696961967       1.385640646055
       345    1        1.959591794227       5.939696961967       0.692820323028
       346    1        2.204540768505       6.363961030679      -0.000000000000
       347    1        2.694438717061       6.363961030679       0.692820323028
       348    1        1.714642819948       6.363961030679       1.385640646055
       349    1        2.939387691340       5.939696961967       0.000000000000
       350    1        3.919183588453       5.939696961967       1.385640646055
       351    1        3.429285639896       5.939696961967       0.692820323028
       352    1        3.674234614175       6.363961030679      -0.000000000000
       353    1        4.164132562731       6.363961030679       0.692820323028
       354    1        3.184336665618       6.363961030679       1.385640646055
       355    1        4.409081537010       5.939696961967       0.000000000000
       356    1        5.388877434123       5.939696961967       1.385640646055
       357    1        4.898979485566       5.939696961967       0.692820323028
       358    1        5.143928459845       6.363961030679      -0.000000000000
       359    1        5.633826408401       6.363961030679       0.692820323028
       360    1        4.654030511288       6.363961030679       1.385640646055
       361    1        5.878775382680       5.939696961967       0.000000000000
       362    1        6.858571279793       5.939696961967       1.385640646055
       363    1        6.368673331236       5.939696961967       0.692820323028
       364    1        6.613622305515       6.363961030679      -0.000000000000
       365    1        7.103520254071       6.363961030679       0.692820323028
       366    1        6.123724356958       6.363961030679       1.385640646055
       367    1        7.348469228350       5.939696961967       0.000000000000
       368    1        8.328265125463       5.939696961967       1.385640646055
       369    1        7.838367176906       5.939696961967       0.692820323028
       370    1        8.083316151184       6.363961030679      -0.000000000000
       371    1        8.573214099741       6.363961030679       0.692820323028